    1C
    1UUSER                                                              
    1UDATE              19.april.2026                                   
    1UTIME              17:35:58                                        
    1UHOST                                                              
    1UPGM               CalculiX                                        
    1UVERSION           Version 2.22                             
    1UCOMPILETIME       Sun Aug  4 19:44:24     2024                    
    1UDIR                                                               
    1UDBN                                                               
    1UMAT    1GLASS                                                     
    2C                          1352                                     1
 -1       677 0.00000E+00 0.00000E+00-3.00000E-03
 -1       679 0.00000E+00 0.00000E+00 3.00000E-03
 -1       680 4.00000E-01 0.00000E+00-3.00000E-03
 -1       682 4.00000E-01 0.00000E+00 3.00000E-03
 -1       683 8.00000E-01 0.00000E+00-3.00000E-03
 -1       685 8.00000E-01 0.00000E+00 3.00000E-03
 -1       686 1.20000E+00 0.00000E+00-3.00000E-03
 -1       688 1.20000E+00 0.00000E+00 3.00000E-03
 -1       689 1.60000E+00 0.00000E+00-3.00000E-03
 -1       691 1.60000E+00 0.00000E+00 3.00000E-03
 -1       692 2.00000E+00 0.00000E+00-3.00000E-03
 -1       694 2.00000E+00 0.00000E+00 3.00000E-03
 -1       695 2.40000E+00 0.00000E+00-3.00000E-03
 -1       697 2.40000E+00 0.00000E+00 3.00000E-03
 -1       698 2.80000E+00 0.00000E+00-3.00000E-03
 -1       700 2.80000E+00 0.00000E+00 3.00000E-03
 -1       701 3.20000E+00 0.00000E+00-3.00000E-03
 -1       703 3.20000E+00 0.00000E+00 3.00000E-03
 -1       704 3.60000E+00 0.00000E+00-3.00000E-03
 -1       706 3.60000E+00 0.00000E+00 3.00000E-03
 -1       707 4.00000E+00 0.00000E+00-3.00000E-03
 -1       709 4.00000E+00 0.00000E+00 3.00000E-03
 -1       710 4.40000E+00 0.00000E+00-3.00000E-03
 -1       712 4.40000E+00 0.00000E+00 3.00000E-03
 -1       713 4.80000E+00 0.00000E+00-3.00000E-03
 -1       715 4.80000E+00 0.00000E+00 3.00000E-03
 -1       716 5.20000E+00 0.00000E+00-3.00000E-03
 -1       718 5.20000E+00 0.00000E+00 3.00000E-03
 -1       719 5.60000E+00 0.00000E+00-3.00000E-03
 -1       721 5.60000E+00 0.00000E+00 3.00000E-03
 -1       722 6.00000E+00 0.00000E+00-3.00000E-03
 -1       724 6.00000E+00 0.00000E+00 3.00000E-03
 -1       725 6.40000E+00 0.00000E+00-3.00000E-03
 -1       727 6.40000E+00 0.00000E+00 3.00000E-03
 -1       728 6.80000E+00 0.00000E+00-3.00000E-03
 -1       730 6.80000E+00 0.00000E+00 3.00000E-03
 -1       731 7.20000E+00 0.00000E+00-3.00000E-03
 -1       733 7.20000E+00 0.00000E+00 3.00000E-03
 -1       734 7.60000E+00 0.00000E+00-3.00000E-03
 -1       736 7.60000E+00 0.00000E+00 3.00000E-03
 -1       737 8.00000E+00 0.00000E+00-3.00000E-03
 -1       739 8.00000E+00 0.00000E+00 3.00000E-03
 -1       740 8.40000E+00 0.00000E+00-3.00000E-03
 -1       742 8.40000E+00 0.00000E+00 3.00000E-03
 -1       743 8.80000E+00 0.00000E+00-3.00000E-03
 -1       745 8.80000E+00 0.00000E+00 3.00000E-03
 -1       746 9.20000E+00 0.00000E+00-3.00000E-03
 -1       748 9.20000E+00 0.00000E+00 3.00000E-03
 -1       749 9.60000E+00 0.00000E+00-3.00000E-03
 -1       751 9.60000E+00 0.00000E+00 3.00000E-03
 -1       752 1.00000E+01 0.00000E+00-3.00000E-03
 -1       754 1.00000E+01 0.00000E+00 3.00000E-03
 -1       755 0.00000E+00 4.00000E-01-3.00000E-03
 -1       757 0.00000E+00 4.00000E-01 3.00000E-03
 -1       758 4.00000E-01 4.00000E-01-3.00000E-03
 -1       760 4.00000E-01 4.00000E-01 3.00000E-03
 -1       761 8.00000E-01 4.00000E-01-3.00000E-03
 -1       763 8.00000E-01 4.00000E-01 3.00000E-03
 -1       764 1.20000E+00 4.00000E-01-3.00000E-03
 -1       766 1.20000E+00 4.00000E-01 3.00000E-03
 -1       767 1.60000E+00 4.00000E-01-3.00000E-03
 -1       769 1.60000E+00 4.00000E-01 3.00000E-03
 -1       770 2.00000E+00 4.00000E-01-3.00000E-03
 -1       772 2.00000E+00 4.00000E-01 3.00000E-03
 -1       773 2.40000E+00 4.00000E-01-3.00000E-03
 -1       775 2.40000E+00 4.00000E-01 3.00000E-03
 -1       776 2.80000E+00 4.00000E-01-3.00000E-03
 -1       778 2.80000E+00 4.00000E-01 3.00000E-03
 -1       779 3.20000E+00 4.00000E-01-3.00000E-03
 -1       781 3.20000E+00 4.00000E-01 3.00000E-03
 -1       782 3.60000E+00 4.00000E-01-3.00000E-03
 -1       784 3.60000E+00 4.00000E-01 3.00000E-03
 -1       785 4.00000E+00 4.00000E-01-3.00000E-03
 -1       787 4.00000E+00 4.00000E-01 3.00000E-03
 -1       788 4.40000E+00 4.00000E-01-3.00000E-03
 -1       790 4.40000E+00 4.00000E-01 3.00000E-03
 -1       791 4.80000E+00 4.00000E-01-3.00000E-03
 -1       793 4.80000E+00 4.00000E-01 3.00000E-03
 -1       794 5.20000E+00 4.00000E-01-3.00000E-03
 -1       796 5.20000E+00 4.00000E-01 3.00000E-03
 -1       797 5.60000E+00 4.00000E-01-3.00000E-03
 -1       799 5.60000E+00 4.00000E-01 3.00000E-03
 -1       800 6.00000E+00 4.00000E-01-3.00000E-03
 -1       802 6.00000E+00 4.00000E-01 3.00000E-03
 -1       803 6.40000E+00 4.00000E-01-3.00000E-03
 -1       805 6.40000E+00 4.00000E-01 3.00000E-03
 -1       806 6.80000E+00 4.00000E-01-3.00000E-03
 -1       808 6.80000E+00 4.00000E-01 3.00000E-03
 -1       809 7.20000E+00 4.00000E-01-3.00000E-03
 -1       811 7.20000E+00 4.00000E-01 3.00000E-03
 -1       812 7.60000E+00 4.00000E-01-3.00000E-03
 -1       814 7.60000E+00 4.00000E-01 3.00000E-03
 -1       815 8.00000E+00 4.00000E-01-3.00000E-03
 -1       817 8.00000E+00 4.00000E-01 3.00000E-03
 -1       818 8.40000E+00 4.00000E-01-3.00000E-03
 -1       820 8.40000E+00 4.00000E-01 3.00000E-03
 -1       821 8.80000E+00 4.00000E-01-3.00000E-03
 -1       823 8.80000E+00 4.00000E-01 3.00000E-03
 -1       824 9.20000E+00 4.00000E-01-3.00000E-03
 -1       826 9.20000E+00 4.00000E-01 3.00000E-03
 -1       827 9.60000E+00 4.00000E-01-3.00000E-03
 -1       829 9.60000E+00 4.00000E-01 3.00000E-03
 -1       830 1.00000E+01 4.00000E-01-3.00000E-03
 -1       832 1.00000E+01 4.00000E-01 3.00000E-03
 -1       833 0.00000E+00 8.00000E-01-3.00000E-03
 -1       835 0.00000E+00 8.00000E-01 3.00000E-03
 -1       836 4.00000E-01 8.00000E-01-3.00000E-03
 -1       838 4.00000E-01 8.00000E-01 3.00000E-03
 -1       839 8.00000E-01 8.00000E-01-3.00000E-03
 -1       841 8.00000E-01 8.00000E-01 3.00000E-03
 -1       842 1.20000E+00 8.00000E-01-3.00000E-03
 -1       844 1.20000E+00 8.00000E-01 3.00000E-03
 -1       845 1.60000E+00 8.00000E-01-3.00000E-03
 -1       847 1.60000E+00 8.00000E-01 3.00000E-03
 -1       848 2.00000E+00 8.00000E-01-3.00000E-03
 -1       850 2.00000E+00 8.00000E-01 3.00000E-03
 -1       851 2.40000E+00 8.00000E-01-3.00000E-03
 -1       853 2.40000E+00 8.00000E-01 3.00000E-03
 -1       854 2.80000E+00 8.00000E-01-3.00000E-03
 -1       856 2.80000E+00 8.00000E-01 3.00000E-03
 -1       857 3.20000E+00 8.00000E-01-3.00000E-03
 -1       859 3.20000E+00 8.00000E-01 3.00000E-03
 -1       860 3.60000E+00 8.00000E-01-3.00000E-03
 -1       862 3.60000E+00 8.00000E-01 3.00000E-03
 -1       863 4.00000E+00 8.00000E-01-3.00000E-03
 -1       865 4.00000E+00 8.00000E-01 3.00000E-03
 -1       866 4.40000E+00 8.00000E-01-3.00000E-03
 -1       868 4.40000E+00 8.00000E-01 3.00000E-03
 -1       869 4.80000E+00 8.00000E-01-3.00000E-03
 -1       871 4.80000E+00 8.00000E-01 3.00000E-03
 -1       872 5.20000E+00 8.00000E-01-3.00000E-03
 -1       874 5.20000E+00 8.00000E-01 3.00000E-03
 -1       875 5.60000E+00 8.00000E-01-3.00000E-03
 -1       877 5.60000E+00 8.00000E-01 3.00000E-03
 -1       878 6.00000E+00 8.00000E-01-3.00000E-03
 -1       880 6.00000E+00 8.00000E-01 3.00000E-03
 -1       881 6.40000E+00 8.00000E-01-3.00000E-03
 -1       883 6.40000E+00 8.00000E-01 3.00000E-03
 -1       884 6.80000E+00 8.00000E-01-3.00000E-03
 -1       886 6.80000E+00 8.00000E-01 3.00000E-03
 -1       887 7.20000E+00 8.00000E-01-3.00000E-03
 -1       889 7.20000E+00 8.00000E-01 3.00000E-03
 -1       890 7.60000E+00 8.00000E-01-3.00000E-03
 -1       892 7.60000E+00 8.00000E-01 3.00000E-03
 -1       893 8.00000E+00 8.00000E-01-3.00000E-03
 -1       895 8.00000E+00 8.00000E-01 3.00000E-03
 -1       896 8.40000E+00 8.00000E-01-3.00000E-03
 -1       898 8.40000E+00 8.00000E-01 3.00000E-03
 -1       899 8.80000E+00 8.00000E-01-3.00000E-03
 -1       901 8.80000E+00 8.00000E-01 3.00000E-03
 -1       902 9.20000E+00 8.00000E-01-3.00000E-03
 -1       904 9.20000E+00 8.00000E-01 3.00000E-03
 -1       905 9.60000E+00 8.00000E-01-3.00000E-03
 -1       907 9.60000E+00 8.00000E-01 3.00000E-03
 -1       908 1.00000E+01 8.00000E-01-3.00000E-03
 -1       910 1.00000E+01 8.00000E-01 3.00000E-03
 -1       911 0.00000E+00 1.20000E+00-3.00000E-03
 -1       913 0.00000E+00 1.20000E+00 3.00000E-03
 -1       914 4.00000E-01 1.20000E+00-3.00000E-03
 -1       916 4.00000E-01 1.20000E+00 3.00000E-03
 -1       917 8.00000E-01 1.20000E+00-3.00000E-03
 -1       919 8.00000E-01 1.20000E+00 3.00000E-03
 -1       920 1.20000E+00 1.20000E+00-3.00000E-03
 -1       922 1.20000E+00 1.20000E+00 3.00000E-03
 -1       923 1.60000E+00 1.20000E+00-3.00000E-03
 -1       925 1.60000E+00 1.20000E+00 3.00000E-03
 -1       926 2.00000E+00 1.20000E+00-3.00000E-03
 -1       928 2.00000E+00 1.20000E+00 3.00000E-03
 -1       929 2.40000E+00 1.20000E+00-3.00000E-03
 -1       931 2.40000E+00 1.20000E+00 3.00000E-03
 -1       932 2.80000E+00 1.20000E+00-3.00000E-03
 -1       934 2.80000E+00 1.20000E+00 3.00000E-03
 -1       935 3.20000E+00 1.20000E+00-3.00000E-03
 -1       937 3.20000E+00 1.20000E+00 3.00000E-03
 -1       938 3.60000E+00 1.20000E+00-3.00000E-03
 -1       940 3.60000E+00 1.20000E+00 3.00000E-03
 -1       941 4.00000E+00 1.20000E+00-3.00000E-03
 -1       943 4.00000E+00 1.20000E+00 3.00000E-03
 -1       944 4.40000E+00 1.20000E+00-3.00000E-03
 -1       946 4.40000E+00 1.20000E+00 3.00000E-03
 -1       947 4.80000E+00 1.20000E+00-3.00000E-03
 -1       949 4.80000E+00 1.20000E+00 3.00000E-03
 -1       950 5.20000E+00 1.20000E+00-3.00000E-03
 -1       952 5.20000E+00 1.20000E+00 3.00000E-03
 -1       953 5.60000E+00 1.20000E+00-3.00000E-03
 -1       955 5.60000E+00 1.20000E+00 3.00000E-03
 -1       956 6.00000E+00 1.20000E+00-3.00000E-03
 -1       958 6.00000E+00 1.20000E+00 3.00000E-03
 -1       959 6.40000E+00 1.20000E+00-3.00000E-03
 -1       961 6.40000E+00 1.20000E+00 3.00000E-03
 -1       962 6.80000E+00 1.20000E+00-3.00000E-03
 -1       964 6.80000E+00 1.20000E+00 3.00000E-03
 -1       965 7.20000E+00 1.20000E+00-3.00000E-03
 -1       967 7.20000E+00 1.20000E+00 3.00000E-03
 -1       968 7.60000E+00 1.20000E+00-3.00000E-03
 -1       970 7.60000E+00 1.20000E+00 3.00000E-03
 -1       971 8.00000E+00 1.20000E+00-3.00000E-03
 -1       973 8.00000E+00 1.20000E+00 3.00000E-03
 -1       974 8.40000E+00 1.20000E+00-3.00000E-03
 -1       976 8.40000E+00 1.20000E+00 3.00000E-03
 -1       977 8.80000E+00 1.20000E+00-3.00000E-03
 -1       979 8.80000E+00 1.20000E+00 3.00000E-03
 -1       980 9.20000E+00 1.20000E+00-3.00000E-03
 -1       982 9.20000E+00 1.20000E+00 3.00000E-03
 -1       983 9.60000E+00 1.20000E+00-3.00000E-03
 -1       985 9.60000E+00 1.20000E+00 3.00000E-03
 -1       986 1.00000E+01 1.20000E+00-3.00000E-03
 -1       988 1.00000E+01 1.20000E+00 3.00000E-03
 -1       989 0.00000E+00 1.60000E+00-3.00000E-03
 -1       991 0.00000E+00 1.60000E+00 3.00000E-03
 -1       992 4.00000E-01 1.60000E+00-3.00000E-03
 -1       994 4.00000E-01 1.60000E+00 3.00000E-03
 -1       995 8.00000E-01 1.60000E+00-3.00000E-03
 -1       997 8.00000E-01 1.60000E+00 3.00000E-03
 -1       998 1.20000E+00 1.60000E+00-3.00000E-03
 -1      1000 1.20000E+00 1.60000E+00 3.00000E-03
 -1      1001 1.60000E+00 1.60000E+00-3.00000E-03
 -1      1003 1.60000E+00 1.60000E+00 3.00000E-03
 -1      1004 2.00000E+00 1.60000E+00-3.00000E-03
 -1      1006 2.00000E+00 1.60000E+00 3.00000E-03
 -1      1007 2.40000E+00 1.60000E+00-3.00000E-03
 -1      1009 2.40000E+00 1.60000E+00 3.00000E-03
 -1      1010 2.80000E+00 1.60000E+00-3.00000E-03
 -1      1012 2.80000E+00 1.60000E+00 3.00000E-03
 -1      1013 3.20000E+00 1.60000E+00-3.00000E-03
 -1      1015 3.20000E+00 1.60000E+00 3.00000E-03
 -1      1016 3.60000E+00 1.60000E+00-3.00000E-03
 -1      1018 3.60000E+00 1.60000E+00 3.00000E-03
 -1      1019 4.00000E+00 1.60000E+00-3.00000E-03
 -1      1021 4.00000E+00 1.60000E+00 3.00000E-03
 -1      1022 4.40000E+00 1.60000E+00-3.00000E-03
 -1      1024 4.40000E+00 1.60000E+00 3.00000E-03
 -1      1025 4.80000E+00 1.60000E+00-3.00000E-03
 -1      1027 4.80000E+00 1.60000E+00 3.00000E-03
 -1      1028 5.20000E+00 1.60000E+00-3.00000E-03
 -1      1030 5.20000E+00 1.60000E+00 3.00000E-03
 -1      1031 5.60000E+00 1.60000E+00-3.00000E-03
 -1      1033 5.60000E+00 1.60000E+00 3.00000E-03
 -1      1034 6.00000E+00 1.60000E+00-3.00000E-03
 -1      1036 6.00000E+00 1.60000E+00 3.00000E-03
 -1      1037 6.40000E+00 1.60000E+00-3.00000E-03
 -1      1039 6.40000E+00 1.60000E+00 3.00000E-03
 -1      1040 6.80000E+00 1.60000E+00-3.00000E-03
 -1      1042 6.80000E+00 1.60000E+00 3.00000E-03
 -1      1043 7.20000E+00 1.60000E+00-3.00000E-03
 -1      1045 7.20000E+00 1.60000E+00 3.00000E-03
 -1      1046 7.60000E+00 1.60000E+00-3.00000E-03
 -1      1048 7.60000E+00 1.60000E+00 3.00000E-03
 -1      1049 8.00000E+00 1.60000E+00-3.00000E-03
 -1      1051 8.00000E+00 1.60000E+00 3.00000E-03
 -1      1052 8.40000E+00 1.60000E+00-3.00000E-03
 -1      1054 8.40000E+00 1.60000E+00 3.00000E-03
 -1      1055 8.80000E+00 1.60000E+00-3.00000E-03
 -1      1057 8.80000E+00 1.60000E+00 3.00000E-03
 -1      1058 9.20000E+00 1.60000E+00-3.00000E-03
 -1      1060 9.20000E+00 1.60000E+00 3.00000E-03
 -1      1061 9.60000E+00 1.60000E+00-3.00000E-03
 -1      1063 9.60000E+00 1.60000E+00 3.00000E-03
 -1      1064 1.00000E+01 1.60000E+00-3.00000E-03
 -1      1066 1.00000E+01 1.60000E+00 3.00000E-03
 -1      1067 0.00000E+00 2.00000E+00-3.00000E-03
 -1      1069 0.00000E+00 2.00000E+00 3.00000E-03
 -1      1070 4.00000E-01 2.00000E+00-3.00000E-03
 -1      1072 4.00000E-01 2.00000E+00 3.00000E-03
 -1      1073 8.00000E-01 2.00000E+00-3.00000E-03
 -1      1075 8.00000E-01 2.00000E+00 3.00000E-03
 -1      1076 1.20000E+00 2.00000E+00-3.00000E-03
 -1      1078 1.20000E+00 2.00000E+00 3.00000E-03
 -1      1079 1.60000E+00 2.00000E+00-3.00000E-03
 -1      1081 1.60000E+00 2.00000E+00 3.00000E-03
 -1      1082 2.00000E+00 2.00000E+00-3.00000E-03
 -1      1084 2.00000E+00 2.00000E+00 3.00000E-03
 -1      1085 2.40000E+00 2.00000E+00-3.00000E-03
 -1      1087 2.40000E+00 2.00000E+00 3.00000E-03
 -1      1088 2.80000E+00 2.00000E+00-3.00000E-03
 -1      1090 2.80000E+00 2.00000E+00 3.00000E-03
 -1      1091 3.20000E+00 2.00000E+00-3.00000E-03
 -1      1093 3.20000E+00 2.00000E+00 3.00000E-03
 -1      1094 3.60000E+00 2.00000E+00-3.00000E-03
 -1      1096 3.60000E+00 2.00000E+00 3.00000E-03
 -1      1097 4.00000E+00 2.00000E+00-3.00000E-03
 -1      1099 4.00000E+00 2.00000E+00 3.00000E-03
 -1      1100 4.40000E+00 2.00000E+00-3.00000E-03
 -1      1102 4.40000E+00 2.00000E+00 3.00000E-03
 -1      1103 4.80000E+00 2.00000E+00-3.00000E-03
 -1      1105 4.80000E+00 2.00000E+00 3.00000E-03
 -1      1106 5.20000E+00 2.00000E+00-3.00000E-03
 -1      1108 5.20000E+00 2.00000E+00 3.00000E-03
 -1      1109 5.60000E+00 2.00000E+00-3.00000E-03
 -1      1111 5.60000E+00 2.00000E+00 3.00000E-03
 -1      1112 6.00000E+00 2.00000E+00-3.00000E-03
 -1      1114 6.00000E+00 2.00000E+00 3.00000E-03
 -1      1115 6.40000E+00 2.00000E+00-3.00000E-03
 -1      1117 6.40000E+00 2.00000E+00 3.00000E-03
 -1      1118 6.80000E+00 2.00000E+00-3.00000E-03
 -1      1120 6.80000E+00 2.00000E+00 3.00000E-03
 -1      1121 7.20000E+00 2.00000E+00-3.00000E-03
 -1      1123 7.20000E+00 2.00000E+00 3.00000E-03
 -1      1124 7.60000E+00 2.00000E+00-3.00000E-03
 -1      1126 7.60000E+00 2.00000E+00 3.00000E-03
 -1      1127 8.00000E+00 2.00000E+00-3.00000E-03
 -1      1129 8.00000E+00 2.00000E+00 3.00000E-03
 -1      1130 8.40000E+00 2.00000E+00-3.00000E-03
 -1      1132 8.40000E+00 2.00000E+00 3.00000E-03
 -1      1133 8.80000E+00 2.00000E+00-3.00000E-03
 -1      1135 8.80000E+00 2.00000E+00 3.00000E-03
 -1      1136 9.20000E+00 2.00000E+00-3.00000E-03
 -1      1138 9.20000E+00 2.00000E+00 3.00000E-03
 -1      1139 9.60000E+00 2.00000E+00-3.00000E-03
 -1      1141 9.60000E+00 2.00000E+00 3.00000E-03
 -1      1142 1.00000E+01 2.00000E+00-3.00000E-03
 -1      1144 1.00000E+01 2.00000E+00 3.00000E-03
 -1      1145 0.00000E+00 2.40000E+00-3.00000E-03
 -1      1147 0.00000E+00 2.40000E+00 3.00000E-03
 -1      1148 4.00000E-01 2.40000E+00-3.00000E-03
 -1      1150 4.00000E-01 2.40000E+00 3.00000E-03
 -1      1151 8.00000E-01 2.40000E+00-3.00000E-03
 -1      1153 8.00000E-01 2.40000E+00 3.00000E-03
 -1      1154 1.20000E+00 2.40000E+00-3.00000E-03
 -1      1156 1.20000E+00 2.40000E+00 3.00000E-03
 -1      1157 1.60000E+00 2.40000E+00-3.00000E-03
 -1      1159 1.60000E+00 2.40000E+00 3.00000E-03
 -1      1160 2.00000E+00 2.40000E+00-3.00000E-03
 -1      1162 2.00000E+00 2.40000E+00 3.00000E-03
 -1      1163 2.40000E+00 2.40000E+00-3.00000E-03
 -1      1165 2.40000E+00 2.40000E+00 3.00000E-03
 -1      1166 2.80000E+00 2.40000E+00-3.00000E-03
 -1      1168 2.80000E+00 2.40000E+00 3.00000E-03
 -1      1169 3.20000E+00 2.40000E+00-3.00000E-03
 -1      1171 3.20000E+00 2.40000E+00 3.00000E-03
 -1      1172 3.60000E+00 2.40000E+00-3.00000E-03
 -1      1174 3.60000E+00 2.40000E+00 3.00000E-03
 -1      1175 4.00000E+00 2.40000E+00-3.00000E-03
 -1      1177 4.00000E+00 2.40000E+00 3.00000E-03
 -1      1178 4.40000E+00 2.40000E+00-3.00000E-03
 -1      1180 4.40000E+00 2.40000E+00 3.00000E-03
 -1      1181 4.80000E+00 2.40000E+00-3.00000E-03
 -1      1183 4.80000E+00 2.40000E+00 3.00000E-03
 -1      1184 5.20000E+00 2.40000E+00-3.00000E-03
 -1      1186 5.20000E+00 2.40000E+00 3.00000E-03
 -1      1187 5.60000E+00 2.40000E+00-3.00000E-03
 -1      1189 5.60000E+00 2.40000E+00 3.00000E-03
 -1      1190 6.00000E+00 2.40000E+00-3.00000E-03
 -1      1192 6.00000E+00 2.40000E+00 3.00000E-03
 -1      1193 6.40000E+00 2.40000E+00-3.00000E-03
 -1      1195 6.40000E+00 2.40000E+00 3.00000E-03
 -1      1196 6.80000E+00 2.40000E+00-3.00000E-03
 -1      1198 6.80000E+00 2.40000E+00 3.00000E-03
 -1      1199 7.20000E+00 2.40000E+00-3.00000E-03
 -1      1201 7.20000E+00 2.40000E+00 3.00000E-03
 -1      1202 7.60000E+00 2.40000E+00-3.00000E-03
 -1      1204 7.60000E+00 2.40000E+00 3.00000E-03
 -1      1205 8.00000E+00 2.40000E+00-3.00000E-03
 -1      1207 8.00000E+00 2.40000E+00 3.00000E-03
 -1      1208 8.40000E+00 2.40000E+00-3.00000E-03
 -1      1210 8.40000E+00 2.40000E+00 3.00000E-03
 -1      1211 8.80000E+00 2.40000E+00-3.00000E-03
 -1      1213 8.80000E+00 2.40000E+00 3.00000E-03
 -1      1214 9.20000E+00 2.40000E+00-3.00000E-03
 -1      1216 9.20000E+00 2.40000E+00 3.00000E-03
 -1      1217 9.60000E+00 2.40000E+00-3.00000E-03
 -1      1219 9.60000E+00 2.40000E+00 3.00000E-03
 -1      1220 1.00000E+01 2.40000E+00-3.00000E-03
 -1      1222 1.00000E+01 2.40000E+00 3.00000E-03
 -1      1223 0.00000E+00 2.80000E+00-3.00000E-03
 -1      1225 0.00000E+00 2.80000E+00 3.00000E-03
 -1      1226 4.00000E-01 2.80000E+00-3.00000E-03
 -1      1228 4.00000E-01 2.80000E+00 3.00000E-03
 -1      1229 8.00000E-01 2.80000E+00-3.00000E-03
 -1      1231 8.00000E-01 2.80000E+00 3.00000E-03
 -1      1232 1.20000E+00 2.80000E+00-3.00000E-03
 -1      1234 1.20000E+00 2.80000E+00 3.00000E-03
 -1      1235 1.60000E+00 2.80000E+00-3.00000E-03
 -1      1237 1.60000E+00 2.80000E+00 3.00000E-03
 -1      1238 2.00000E+00 2.80000E+00-3.00000E-03
 -1      1240 2.00000E+00 2.80000E+00 3.00000E-03
 -1      1241 2.40000E+00 2.80000E+00-3.00000E-03
 -1      1243 2.40000E+00 2.80000E+00 3.00000E-03
 -1      1244 2.80000E+00 2.80000E+00-3.00000E-03
 -1      1246 2.80000E+00 2.80000E+00 3.00000E-03
 -1      1247 3.20000E+00 2.80000E+00-3.00000E-03
 -1      1249 3.20000E+00 2.80000E+00 3.00000E-03
 -1      1250 3.60000E+00 2.80000E+00-3.00000E-03
 -1      1252 3.60000E+00 2.80000E+00 3.00000E-03
 -1      1253 4.00000E+00 2.80000E+00-3.00000E-03
 -1      1255 4.00000E+00 2.80000E+00 3.00000E-03
 -1      1256 4.40000E+00 2.80000E+00-3.00000E-03
 -1      1258 4.40000E+00 2.80000E+00 3.00000E-03
 -1      1259 4.80000E+00 2.80000E+00-3.00000E-03
 -1      1261 4.80000E+00 2.80000E+00 3.00000E-03
 -1      1262 5.20000E+00 2.80000E+00-3.00000E-03
 -1      1264 5.20000E+00 2.80000E+00 3.00000E-03
 -1      1265 5.60000E+00 2.80000E+00-3.00000E-03
 -1      1267 5.60000E+00 2.80000E+00 3.00000E-03
 -1      1268 6.00000E+00 2.80000E+00-3.00000E-03
 -1      1270 6.00000E+00 2.80000E+00 3.00000E-03
 -1      1271 6.40000E+00 2.80000E+00-3.00000E-03
 -1      1273 6.40000E+00 2.80000E+00 3.00000E-03
 -1      1274 6.80000E+00 2.80000E+00-3.00000E-03
 -1      1276 6.80000E+00 2.80000E+00 3.00000E-03
 -1      1277 7.20000E+00 2.80000E+00-3.00000E-03
 -1      1279 7.20000E+00 2.80000E+00 3.00000E-03
 -1      1280 7.60000E+00 2.80000E+00-3.00000E-03
 -1      1282 7.60000E+00 2.80000E+00 3.00000E-03
 -1      1283 8.00000E+00 2.80000E+00-3.00000E-03
 -1      1285 8.00000E+00 2.80000E+00 3.00000E-03
 -1      1286 8.40000E+00 2.80000E+00-3.00000E-03
 -1      1288 8.40000E+00 2.80000E+00 3.00000E-03
 -1      1289 8.80000E+00 2.80000E+00-3.00000E-03
 -1      1291 8.80000E+00 2.80000E+00 3.00000E-03
 -1      1292 9.20000E+00 2.80000E+00-3.00000E-03
 -1      1294 9.20000E+00 2.80000E+00 3.00000E-03
 -1      1295 9.60000E+00 2.80000E+00-3.00000E-03
 -1      1297 9.60000E+00 2.80000E+00 3.00000E-03
 -1      1298 1.00000E+01 2.80000E+00-3.00000E-03
 -1      1300 1.00000E+01 2.80000E+00 3.00000E-03
 -1      1301 0.00000E+00 3.20000E+00-3.00000E-03
 -1      1303 0.00000E+00 3.20000E+00 3.00000E-03
 -1      1304 4.00000E-01 3.20000E+00-3.00000E-03
 -1      1306 4.00000E-01 3.20000E+00 3.00000E-03
 -1      1307 8.00000E-01 3.20000E+00-3.00000E-03
 -1      1309 8.00000E-01 3.20000E+00 3.00000E-03
 -1      1310 1.20000E+00 3.20000E+00-3.00000E-03
 -1      1312 1.20000E+00 3.20000E+00 3.00000E-03
 -1      1313 1.60000E+00 3.20000E+00-3.00000E-03
 -1      1315 1.60000E+00 3.20000E+00 3.00000E-03
 -1      1316 2.00000E+00 3.20000E+00-3.00000E-03
 -1      1318 2.00000E+00 3.20000E+00 3.00000E-03
 -1      1319 2.40000E+00 3.20000E+00-3.00000E-03
 -1      1321 2.40000E+00 3.20000E+00 3.00000E-03
 -1      1322 2.80000E+00 3.20000E+00-3.00000E-03
 -1      1324 2.80000E+00 3.20000E+00 3.00000E-03
 -1      1325 3.20000E+00 3.20000E+00-3.00000E-03
 -1      1327 3.20000E+00 3.20000E+00 3.00000E-03
 -1      1328 3.60000E+00 3.20000E+00-3.00000E-03
 -1      1330 3.60000E+00 3.20000E+00 3.00000E-03
 -1      1331 4.00000E+00 3.20000E+00-3.00000E-03
 -1      1333 4.00000E+00 3.20000E+00 3.00000E-03
 -1      1334 4.40000E+00 3.20000E+00-3.00000E-03
 -1      1336 4.40000E+00 3.20000E+00 3.00000E-03
 -1      1337 4.80000E+00 3.20000E+00-3.00000E-03
 -1      1339 4.80000E+00 3.20000E+00 3.00000E-03
 -1      1340 5.20000E+00 3.20000E+00-3.00000E-03
 -1      1342 5.20000E+00 3.20000E+00 3.00000E-03
 -1      1343 5.60000E+00 3.20000E+00-3.00000E-03
 -1      1345 5.60000E+00 3.20000E+00 3.00000E-03
 -1      1346 6.00000E+00 3.20000E+00-3.00000E-03
 -1      1348 6.00000E+00 3.20000E+00 3.00000E-03
 -1      1349 6.40000E+00 3.20000E+00-3.00000E-03
 -1      1351 6.40000E+00 3.20000E+00 3.00000E-03
 -1      1352 6.80000E+00 3.20000E+00-3.00000E-03
 -1      1354 6.80000E+00 3.20000E+00 3.00000E-03
 -1      1355 7.20000E+00 3.20000E+00-3.00000E-03
 -1      1357 7.20000E+00 3.20000E+00 3.00000E-03
 -1      1358 7.60000E+00 3.20000E+00-3.00000E-03
 -1      1360 7.60000E+00 3.20000E+00 3.00000E-03
 -1      1361 8.00000E+00 3.20000E+00-3.00000E-03
 -1      1363 8.00000E+00 3.20000E+00 3.00000E-03
 -1      1364 8.40000E+00 3.20000E+00-3.00000E-03
 -1      1366 8.40000E+00 3.20000E+00 3.00000E-03
 -1      1367 8.80000E+00 3.20000E+00-3.00000E-03
 -1      1369 8.80000E+00 3.20000E+00 3.00000E-03
 -1      1370 9.20000E+00 3.20000E+00-3.00000E-03
 -1      1372 9.20000E+00 3.20000E+00 3.00000E-03
 -1      1373 9.60000E+00 3.20000E+00-3.00000E-03
 -1      1375 9.60000E+00 3.20000E+00 3.00000E-03
 -1      1376 1.00000E+01 3.20000E+00-3.00000E-03
 -1      1378 1.00000E+01 3.20000E+00 3.00000E-03
 -1      1379 0.00000E+00 3.60000E+00-3.00000E-03
 -1      1381 0.00000E+00 3.60000E+00 3.00000E-03
 -1      1382 4.00000E-01 3.60000E+00-3.00000E-03
 -1      1384 4.00000E-01 3.60000E+00 3.00000E-03
 -1      1385 8.00000E-01 3.60000E+00-3.00000E-03
 -1      1387 8.00000E-01 3.60000E+00 3.00000E-03
 -1      1388 1.20000E+00 3.60000E+00-3.00000E-03
 -1      1390 1.20000E+00 3.60000E+00 3.00000E-03
 -1      1391 1.60000E+00 3.60000E+00-3.00000E-03
 -1      1393 1.60000E+00 3.60000E+00 3.00000E-03
 -1      1394 2.00000E+00 3.60000E+00-3.00000E-03
 -1      1396 2.00000E+00 3.60000E+00 3.00000E-03
 -1      1397 2.40000E+00 3.60000E+00-3.00000E-03
 -1      1399 2.40000E+00 3.60000E+00 3.00000E-03
 -1      1400 2.80000E+00 3.60000E+00-3.00000E-03
 -1      1402 2.80000E+00 3.60000E+00 3.00000E-03
 -1      1403 3.20000E+00 3.60000E+00-3.00000E-03
 -1      1405 3.20000E+00 3.60000E+00 3.00000E-03
 -1      1406 3.60000E+00 3.60000E+00-3.00000E-03
 -1      1408 3.60000E+00 3.60000E+00 3.00000E-03
 -1      1409 4.00000E+00 3.60000E+00-3.00000E-03
 -1      1411 4.00000E+00 3.60000E+00 3.00000E-03
 -1      1412 4.40000E+00 3.60000E+00-3.00000E-03
 -1      1414 4.40000E+00 3.60000E+00 3.00000E-03
 -1      1415 4.80000E+00 3.60000E+00-3.00000E-03
 -1      1417 4.80000E+00 3.60000E+00 3.00000E-03
 -1      1418 5.20000E+00 3.60000E+00-3.00000E-03
 -1      1420 5.20000E+00 3.60000E+00 3.00000E-03
 -1      1421 5.60000E+00 3.60000E+00-3.00000E-03
 -1      1423 5.60000E+00 3.60000E+00 3.00000E-03
 -1      1424 6.00000E+00 3.60000E+00-3.00000E-03
 -1      1426 6.00000E+00 3.60000E+00 3.00000E-03
 -1      1427 6.40000E+00 3.60000E+00-3.00000E-03
 -1      1429 6.40000E+00 3.60000E+00 3.00000E-03
 -1      1430 6.80000E+00 3.60000E+00-3.00000E-03
 -1      1432 6.80000E+00 3.60000E+00 3.00000E-03
 -1      1433 7.20000E+00 3.60000E+00-3.00000E-03
 -1      1435 7.20000E+00 3.60000E+00 3.00000E-03
 -1      1436 7.60000E+00 3.60000E+00-3.00000E-03
 -1      1438 7.60000E+00 3.60000E+00 3.00000E-03
 -1      1439 8.00000E+00 3.60000E+00-3.00000E-03
 -1      1441 8.00000E+00 3.60000E+00 3.00000E-03
 -1      1442 8.40000E+00 3.60000E+00-3.00000E-03
 -1      1444 8.40000E+00 3.60000E+00 3.00000E-03
 -1      1445 8.80000E+00 3.60000E+00-3.00000E-03
 -1      1447 8.80000E+00 3.60000E+00 3.00000E-03
 -1      1448 9.20000E+00 3.60000E+00-3.00000E-03
 -1      1450 9.20000E+00 3.60000E+00 3.00000E-03
 -1      1451 9.60000E+00 3.60000E+00-3.00000E-03
 -1      1453 9.60000E+00 3.60000E+00 3.00000E-03
 -1      1454 1.00000E+01 3.60000E+00-3.00000E-03
 -1      1456 1.00000E+01 3.60000E+00 3.00000E-03
 -1      1457 0.00000E+00 4.00000E+00-3.00000E-03
 -1      1459 0.00000E+00 4.00000E+00 3.00000E-03
 -1      1460 4.00000E-01 4.00000E+00-3.00000E-03
 -1      1462 4.00000E-01 4.00000E+00 3.00000E-03
 -1      1463 8.00000E-01 4.00000E+00-3.00000E-03
 -1      1465 8.00000E-01 4.00000E+00 3.00000E-03
 -1      1466 1.20000E+00 4.00000E+00-3.00000E-03
 -1      1468 1.20000E+00 4.00000E+00 3.00000E-03
 -1      1469 1.60000E+00 4.00000E+00-3.00000E-03
 -1      1471 1.60000E+00 4.00000E+00 3.00000E-03
 -1      1472 2.00000E+00 4.00000E+00-3.00000E-03
 -1      1474 2.00000E+00 4.00000E+00 3.00000E-03
 -1      1475 2.40000E+00 4.00000E+00-3.00000E-03
 -1      1477 2.40000E+00 4.00000E+00 3.00000E-03
 -1      1478 2.80000E+00 4.00000E+00-3.00000E-03
 -1      1480 2.80000E+00 4.00000E+00 3.00000E-03
 -1      1481 3.20000E+00 4.00000E+00-3.00000E-03
 -1      1483 3.20000E+00 4.00000E+00 3.00000E-03
 -1      1484 3.60000E+00 4.00000E+00-3.00000E-03
 -1      1486 3.60000E+00 4.00000E+00 3.00000E-03
 -1      1487 4.00000E+00 4.00000E+00-3.00000E-03
 -1      1489 4.00000E+00 4.00000E+00 3.00000E-03
 -1      1490 4.40000E+00 4.00000E+00-3.00000E-03
 -1      1492 4.40000E+00 4.00000E+00 3.00000E-03
 -1      1493 4.80000E+00 4.00000E+00-3.00000E-03
 -1      1495 4.80000E+00 4.00000E+00 3.00000E-03
 -1      1496 5.20000E+00 4.00000E+00-3.00000E-03
 -1      1498 5.20000E+00 4.00000E+00 3.00000E-03
 -1      1499 5.60000E+00 4.00000E+00-3.00000E-03
 -1      1501 5.60000E+00 4.00000E+00 3.00000E-03
 -1      1502 6.00000E+00 4.00000E+00-3.00000E-03
 -1      1504 6.00000E+00 4.00000E+00 3.00000E-03
 -1      1505 6.40000E+00 4.00000E+00-3.00000E-03
 -1      1507 6.40000E+00 4.00000E+00 3.00000E-03
 -1      1508 6.80000E+00 4.00000E+00-3.00000E-03
 -1      1510 6.80000E+00 4.00000E+00 3.00000E-03
 -1      1511 7.20000E+00 4.00000E+00-3.00000E-03
 -1      1513 7.20000E+00 4.00000E+00 3.00000E-03
 -1      1514 7.60000E+00 4.00000E+00-3.00000E-03
 -1      1516 7.60000E+00 4.00000E+00 3.00000E-03
 -1      1517 8.00000E+00 4.00000E+00-3.00000E-03
 -1      1519 8.00000E+00 4.00000E+00 3.00000E-03
 -1      1520 8.40000E+00 4.00000E+00-3.00000E-03
 -1      1522 8.40000E+00 4.00000E+00 3.00000E-03
 -1      1523 8.80000E+00 4.00000E+00-3.00000E-03
 -1      1525 8.80000E+00 4.00000E+00 3.00000E-03
 -1      1526 9.20000E+00 4.00000E+00-3.00000E-03
 -1      1528 9.20000E+00 4.00000E+00 3.00000E-03
 -1      1529 9.60000E+00 4.00000E+00-3.00000E-03
 -1      1531 9.60000E+00 4.00000E+00 3.00000E-03
 -1      1532 1.00000E+01 4.00000E+00-3.00000E-03
 -1      1534 1.00000E+01 4.00000E+00 3.00000E-03
 -1      1535 0.00000E+00 4.40000E+00-3.00000E-03
 -1      1537 0.00000E+00 4.40000E+00 3.00000E-03
 -1      1538 4.00000E-01 4.40000E+00-3.00000E-03
 -1      1540 4.00000E-01 4.40000E+00 3.00000E-03
 -1      1541 8.00000E-01 4.40000E+00-3.00000E-03
 -1      1543 8.00000E-01 4.40000E+00 3.00000E-03
 -1      1544 1.20000E+00 4.40000E+00-3.00000E-03
 -1      1546 1.20000E+00 4.40000E+00 3.00000E-03
 -1      1547 1.60000E+00 4.40000E+00-3.00000E-03
 -1      1549 1.60000E+00 4.40000E+00 3.00000E-03
 -1      1550 2.00000E+00 4.40000E+00-3.00000E-03